<?xml version="1.0" encoding="UTF-8"?>

<!-- generated on 2025-03-31 12:53:27 by Eclipse SUMO GUI Version v1_22_0+0885-ae1561aa2ac
<sumoConfiguration xmlns:xsi="http://www.w3.org/2001/XMLSchema-instance" xsi:noNamespaceSchemaLocation="http://sumo.dlr.de/xsd/sumoConfiguration.xsd">

    <input>
        <net-file value="simple_network.net.xml"/>
        <route-files value="simple.rou.xml"/>
    </input>

    <output>
        <summary-output value="summary.xml"/>
        <tripinfo-output value="tripinfo.xml"/>
    </output>

    <time>
        <begin value="0"/>
        <end value="500"/>
    </time>

</sumoConfiguration>
-->

<tripinfos xmlns:xsi="http://www.w3.org/2001/XMLSchema-instance" xsi:noNamespaceSchemaLocation="http://sumo.dlr.de/xsd/tripinfo_file.xsd">
    <tripinfo id="veh1" depart="0.00" departLane="road_AB_0" departPos="5.10" departSpeed="0.00" departDelay="0.00" arrival="23.00" arrivalLane="road_AB_0" arrivalPos="200.00" arrivalSpeed="14.26" duration="23.00" routeLength="194.90" waitingTime="0.00" waitingCount="0" stopTime="0.00" timeLoss="9.18" rerouteNo="0" devices="tripinfo_veh1" vType="car" speedFactor="1.06" vaporized=""/>
    <tripinfo id="veh2" depart="10.00" departLane="road_AB_0" departPos="5.10" departSpeed="0.00" departDelay="0.00" arrival="34.00" arrivalLane="road_AB_0" arrivalPos="200.00" arrivalSpeed="12.92" duration="24.00" routeLength="194.90" waitingTime="0.00" waitingCount="0" stopTime="0.00" timeLoss="8.39" rerouteNo="0" devices="tripinfo_veh2" vType="car" speedFactor="0.94" vaporized=""/>
</tripinfos>
