<?xml version="1.0" encoding="UTF-8"?>

<!-- generated on 2025-04-04 18:32:22 by Eclipse SUMO GUI Version v1_22_0+0885-ae1561aa2ac
<sumoConfiguration xmlns:xsi="http://www.w3.org/2001/XMLSchema-instance" xsi:noNamespaceSchemaLocation="http://sumo.dlr.de/xsd/sumoConfiguration.xsd">

    <input>
        <net-file value="complex_network.net.xml"/>
        <route-files value="complex.rou.xml"/>
    </input>

    <output>
        <tripinfo-output value="complex_tripinfo.xml"/>
    </output>

    <time>
        <begin value="0"/>
    </time>

    <processing>
        <time-to-teleport value="-1"/>
    </processing>

</sumoConfiguration>
-->

<tripinfos xmlns:xsi="http://www.w3.org/2001/XMLSchema-instance" xsi:noNamespaceSchemaLocation="http://sumo.dlr.de/xsd/tripinfo_file.xsd">
    <tripinfo id="N_E_11" depart="190.00" departLane="N2TL_3" departPos="5.10" departSpeed="10.00" departDelay="1.00" arrival="301.00" arrivalLane="TL2E_0" arrivalPos="750.00" arrivalSpeed="13.91" duration="111.00" routeLength="1524.57" waitingTime="0.00" waitingCount="0" stopTime="0.00" timeLoss="3.20" rerouteNo="0" devices="tripinfo_N_E_11" vType="standard_car" speedFactor="1.03" vaporized=""/>
    <tripinfo id="E_W_19" depart="247.00" departLane="E2TL_0" departPos="5.10" departSpeed="10.00" departDelay="0.00" arrival="461.00" arrivalLane="TL2W_1" arrivalPos="750.00" arrivalSpeed="15.71" duration="214.00" routeLength="1528.50" waitingTime="95.00" waitingCount="1" stopTime="0.00" timeLoss="118.10" rerouteNo="0" devices="tripinfo_E_W_19" vType="standard_car" speedFactor="1.16" vaporized=""/>
    <tripinfo id="W_E_33" depart="322.00" departLane="W2TL_0" departPos="5.10" departSpeed="10.00" departDelay="0.00" arrival="461.00" arrivalLane="TL2E_1" arrivalPos="750.00" arrivalSpeed="16.20" duration="139.00" routeLength="1528.50" waitingTime="28.00" waitingCount="1" stopTime="0.00" timeLoss="44.77" rerouteNo="0" devices="tripinfo_W_E_33" vType="standard_car" speedFactor="1.17" vaporized=""/>
    <tripinfo id="W_E_3" depart="125.00" departLane="W2TL_3" departPos="5.10" departSpeed="10.00" departDelay="1.00" arrival="462.00" arrivalLane="TL2E_0" arrivalPos="750.00" arrivalSpeed="14.63" duration="337.00" routeLength="1528.50" waitingTime="221.00" waitingCount="1" stopTime="0.00" timeLoss="234.59" rerouteNo="0" devices="tripinfo_W_E_3" vType="standard_car" speedFactor="1.08" vaporized=""/>
    <tripinfo id="E_W_28" depart="303.00" departLane="E2TL_0" departPos="5.10" departSpeed="10.00" departDelay="0.00" arrival="463.00" arrivalLane="TL2W_1" arrivalPos="750.00" arrivalSpeed="15.63" duration="160.00" routeLength="1528.50" waitingTime="47.00" waitingCount="1" stopTime="0.00" timeLoss="62.46" rerouteNo="0" devices="tripinfo_E_W_28" vType="standard_car" speedFactor="1.13" vaporized=""/>
    <tripinfo id="E_W_4" depart="132.00" departLane="E2TL_2" departPos="5.10" departSpeed="10.00" departDelay="0.00" arrival="464.00" arrivalLane="TL2W_0" arrivalPos="750.00" arrivalSpeed="14.01" duration="332.00" routeLength="1528.50" waitingTime="211.00" waitingCount="1" stopTime="0.00" timeLoss="224.43" rerouteNo="0" devices="tripinfo_E_W_4" vType="standard_car" speedFactor="1.03" vaporized=""/>
    <tripinfo id="E_W_30" depart="313.00" departLane="E2TL_3" departPos="5.10" departSpeed="10.00" departDelay="0.00" arrival="464.00" arrivalLane="TL2W_3" arrivalPos="750.00" arrivalSpeed="16.07" duration="151.00" routeLength="1528.50" waitingTime="39.00" waitingCount="1" stopTime="0.00" timeLoss="57.00" rerouteNo="0" devices="tripinfo_E_W_30" vType="standard_car" speedFactor="1.18" vaporized=""/>
    <tripinfo id="W_E_2" depart="123.00" departLane="W2TL_3" departPos="5.10" departSpeed="10.00" departDelay="0.00" arrival="465.00" arrivalLane="TL2E_0" arrivalPos="750.00" arrivalSpeed="13.84" duration="342.00" routeLength="1528.50" waitingTime="220.00" waitingCount="1" stopTime="0.00" timeLoss="232.45" rerouteNo="0" devices="tripinfo_W_E_2" vType="standard_car" speedFactor="1.01" vaporized=""/>
    <tripinfo id="E_W_31" depart="318.00" departLane="E2TL_0" departPos="5.10" departSpeed="10.00" departDelay="0.00" arrival="466.00" arrivalLane="TL2W_2" arrivalPos="750.00" arrivalSpeed="15.74" duration="148.00" routeLength="1528.50" waitingTime="35.00" waitingCount="1" stopTime="0.00" timeLoss="52.52" rerouteNo="0" devices="tripinfo_E_W_31" vType="standard_car" speedFactor="1.15" vaporized=""/>
    <tripinfo id="W_E_21" depart="267.00" departLane="W2TL_1" departPos="5.10" departSpeed="10.00" departDelay="0.00" arrival="467.00" arrivalLane="TL2E_0" arrivalPos="750.00" arrivalSpeed="13.64" duration="200.00" routeLength="1528.50" waitingTime="76.00" waitingCount="1" stopTime="0.00" timeLoss="90.41" rerouteNo="0" devices="tripinfo_W_E_21" vType="standard_car" speedFactor="1.01" vaporized=""/>
    <tripinfo id="W_E_27" depart="294.00" departLane="W2TL_2" departPos="5.10" departSpeed="10.00" departDelay="0.00" arrival="467.00" arrivalLane="TL2E_1" arrivalPos="750.00" arrivalSpeed="13.17" duration="173.00" routeLength="1528.50" waitingTime="44.00" waitingCount="1" stopTime="0.00" timeLoss="56.88" rerouteNo="0" devices="tripinfo_W_E_27" vType="standard_car" speedFactor="0.95" vaporized=""/>
    <tripinfo id="E_W_1" depart="78.00" departLane="E2TL_1" departPos="5.10" departSpeed="10.00" departDelay="0.00" arrival="468.00" arrivalLane="TL2W_0" arrivalPos="750.00" arrivalSpeed="12.82" duration="390.00" routeLength="1528.50" waitingTime="261.00" waitingCount="1" stopTime="0.00" timeLoss="272.69" rerouteNo="0" devices="tripinfo_E_W_1" vType="standard_car" speedFactor="0.94" vaporized=""/>
    <tripinfo id="E_W_15" depart="212.00" departLane="E2TL_0" departPos="5.10" departSpeed="10.00" departDelay="0.00" arrival="469.00" arrivalLane="TL2W_1" arrivalPos="750.00" arrivalSpeed="12.81" duration="257.00" routeLength="1528.50" waitingTime="125.00" waitingCount="1" stopTime="0.00" timeLoss="137.63" rerouteNo="0" devices="tripinfo_E_W_15" vType="standard_car" speedFactor="0.93" vaporized=""/>
    <tripinfo id="W_E_32" depart="322.00" departLane="W2TL_2" departPos="5.10" departSpeed="10.00" departDelay="0.00" arrival="469.00" arrivalLane="TL2E_0" arrivalPos="750.00" arrivalSpeed="13.79" duration="147.00" routeLength="1528.50" waitingTime="23.00" waitingCount="1" stopTime="0.00" timeLoss="36.98" rerouteNo="0" devices="tripinfo_W_E_32" vType="standard_car" speedFactor="1.01" vaporized=""/>
    <tripinfo id="W_E_36" depart="344.00" departLane="W2TL_3" departPos="5.10" departSpeed="10.00" departDelay="0.00" arrival="469.00" arrivalLane="TL2E_2" arrivalPos="750.00" arrivalSpeed="13.16" duration="125.00" routeLength="1528.50" waitingTime="0.00" waitingCount="0" stopTime="0.00" timeLoss="11.36" rerouteNo="0" devices="tripinfo_W_E_36" vType="standard_car" speedFactor="0.97" vaporized=""/>
    <tripinfo id="W_E_40" depart="356.00" departLane="W2TL_1" departPos="5.10" departSpeed="10.00" departDelay="0.00" arrival="469.00" arrivalLane="TL2E_1" arrivalPos="750.00" arrivalSpeed="13.82" duration="113.00" routeLength="1528.50" waitingTime="0.00" waitingCount="0" stopTime="0.00" timeLoss="5.67" rerouteNo="0" devices="tripinfo_W_E_40" vType="standard_car" speedFactor="1.03" vaporized=""/>
    <tripinfo id="E_W_22" depart="273.00" departLane="E2TL_2" departPos="5.10" departSpeed="10.00" departDelay="0.00" arrival="471.00" arrivalLane="TL2W_0" arrivalPos="750.00" arrivalSpeed="13.23" duration="198.00" routeLength="1528.50" waitingTime="70.00" waitingCount="1" stopTime="0.00" timeLoss="84.88" rerouteNo="0" devices="tripinfo_E_W_22" vType="standard_car" speedFactor="0.97" vaporized=""/>
    <tripinfo id="E_N_17" depart="243.00" departLane="E2TL_0" departPos="5.10" departSpeed="10.00" departDelay="0.00" arrival="472.00" arrivalLane="TL2N_0" arrivalPos="750.00" arrivalSpeed="12.61" duration="229.00" routeLength="1503.93" waitingTime="98.00" waitingCount="1" stopTime="0.00" timeLoss="113.05" rerouteNo="0" devices="tripinfo_E_N_17" vType="standard_car" speedFactor="0.94" vaporized=""/>
    <tripinfo id="E_W_16" depart="222.00" departLane="E2TL_3" departPos="5.10" departSpeed="10.00" departDelay="0.00" arrival="474.00" arrivalLane="TL2W_0" arrivalPos="750.00" arrivalSpeed="11.80" duration="252.00" routeLength="1528.50" waitingTime="114.00" waitingCount="1" stopTime="0.00" timeLoss="126.48" rerouteNo="0" devices="tripinfo_E_W_16" vType="standard_car" speedFactor="0.88" vaporized=""/>
    <tripinfo id="E_N_18" depart="244.00" departLane="E2TL_2" departPos="5.10" departSpeed="10.00" departDelay="1.00" arrival="474.00" arrivalLane="TL2N_0" arrivalPos="750.00" arrivalSpeed="12.70" duration="230.00" routeLength="1503.93" waitingTime="98.00" waitingCount="1" stopTime="0.00" timeLoss="113.69" rerouteNo="0" devices="tripinfo_E_N_18" vType="standard_car" speedFactor="0.94" vaporized=""/>
    <tripinfo id="E_W_5" depart="142.00" departLane="E2TL_0" departPos="5.10" departSpeed="10.00" departDelay="0.00" arrival="479.00" arrivalLane="TL2W_0" arrivalPos="750.00" arrivalSpeed="11.23" duration="337.00" routeLength="1528.50" waitingTime="190.00" waitingCount="1" stopTime="0.00" timeLoss="203.70" rerouteNo="0" devices="tripinfo_E_W_5" vType="standard_car" speedFactor="0.83" vaporized=""/>
    <tripinfo id="E_W_29" depart="308.00" departLane="E2TL_3" departPos="5.10" departSpeed="10.00" departDelay="0.00" arrival="479.00" arrivalLane="TL2W_1" arrivalPos="750.00" arrivalSpeed="12.75" duration="171.00" routeLength="1528.50" waitingTime="36.00" waitingCount="1" stopTime="0.00" timeLoss="51.90" rerouteNo="0" devices="tripinfo_E_W_29" vType="standard_car" speedFactor="0.93" vaporized=""/>
    <tripinfo id="E_W_41" depart="364.00" departLane="E2TL_0" departPos="5.10" departSpeed="10.00" departDelay="0.00" arrival="482.00" arrivalLane="TL2W_0" arrivalPos="750.00" arrivalSpeed="13.12" duration="118.00" routeLength="1528.50" waitingTime="0.00" waitingCount="0" stopTime="0.00" timeLoss="2.56" rerouteNo="0" devices="tripinfo_E_W_41" vType="standard_car" speedFactor="0.96" vaporized=""/>
    <tripinfo id="W_E_51" depart="402.00" departLane="W2TL_1" departPos="5.10" departSpeed="10.00" departDelay="0.00" arrival="499.00" arrivalLane="TL2E_0" arrivalPos="750.00" arrivalSpeed="16.07" duration="97.00" routeLength="1528.50" waitingTime="0.00" waitingCount="0" stopTime="0.00" timeLoss="2.84" rerouteNo="0" devices="tripinfo_W_E_51" vType="standard_car" speedFactor="1.17" vaporized=""/>
    <tripinfo id="E_W_53" depart="404.00" departLane="E2TL_2" departPos="5.10" departSpeed="10.00" departDelay="0.00" arrival="507.00" arrivalLane="TL2W_0" arrivalPos="750.00" arrivalSpeed="14.84" duration="103.00" routeLength="1528.50" waitingTime="0.00" waitingCount="0" stopTime="0.00" timeLoss="2.52" rerouteNo="0" devices="tripinfo_E_W_53" vType="standard_car" speedFactor="1.10" vaporized=""/>
    <tripinfo id="W_E_47" depart="385.00" departLane="W2TL_1" departPos="5.10" departSpeed="10.00" departDelay="0.00" arrival="510.00" arrivalLane="TL2E_0" arrivalPos="750.00" arrivalSpeed="12.28" duration="125.00" routeLength="1528.50" waitingTime="0.00" waitingCount="0" stopTime="0.00" timeLoss="2.63" rerouteNo="0" devices="tripinfo_W_E_47" vType="standard_car" speedFactor="0.90" vaporized=""/>
    <tripinfo id="E_W_52" depart="402.00" departLane="E2TL_3" departPos="5.10" departSpeed="10.00" departDelay="0.00" arrival="513.00" arrivalLane="TL2W_0" arrivalPos="750.00" arrivalSpeed="13.67" duration="111.00" routeLength="1528.50" waitingTime="0.00" waitingCount="0" stopTime="0.00" timeLoss="2.31" rerouteNo="0" devices="tripinfo_E_W_52" vType="standard_car" speedFactor="1.02" vaporized=""/>
    <tripinfo id="E_W_54" depart="406.00" departLane="E2TL_1" departPos="5.10" departSpeed="10.00" departDelay="0.00" arrival="519.00" arrivalLane="TL2W_0" arrivalPos="750.00" arrivalSpeed="13.56" duration="113.00" routeLength="1528.50" waitingTime="0.00" waitingCount="0" stopTime="0.00" timeLoss="2.49" rerouteNo="0" devices="tripinfo_E_W_54" vType="standard_car" speedFactor="1.00" vaporized=""/>
    <tripinfo id="W_S_55" depart="411.00" departLane="W2TL_1" departPos="5.10" departSpeed="10.00" departDelay="0.00" arrival="527.00" arrivalLane="TL2S_0" arrivalPos="750.00" arrivalSpeed="13.62" duration="116.00" routeLength="1503.93" waitingTime="0.00" waitingCount="0" stopTime="0.00" timeLoss="6.15" rerouteNo="0" devices="tripinfo_W_S_55" vType="standard_car" speedFactor="1.00" vaporized=""/>
    <tripinfo id="W_E_58" depart="420.00" departLane="W2TL_3" departPos="5.10" departSpeed="10.00" departDelay="0.00" arrival="531.00" arrivalLane="TL2E_0" arrivalPos="750.00" arrivalSpeed="14.08" duration="111.00" routeLength="1528.50" waitingTime="0.00" waitingCount="0" stopTime="0.00" timeLoss="2.57" rerouteNo="0" devices="tripinfo_W_E_58" vType="standard_car" speedFactor="1.02" vaporized=""/>
    <tripinfo id="E_W_50" depart="400.00" departLane="E2TL_1" departPos="5.10" departSpeed="10.00" departDelay="0.00" arrival="532.00" arrivalLane="TL2W_0" arrivalPos="750.00" arrivalSpeed="11.45" duration="132.00" routeLength="1528.50" waitingTime="0.00" waitingCount="0" stopTime="0.00" timeLoss="3.07" rerouteNo="0" devices="tripinfo_E_W_50" vType="standard_car" speedFactor="0.85" vaporized=""/>
    <tripinfo id="E_W_59" depart="420.00" departLane="E2TL_3" departPos="5.10" departSpeed="10.00" departDelay="0.00" arrival="536.00" arrivalLane="TL2W_0" arrivalPos="750.00" arrivalSpeed="13.29" duration="116.00" routeLength="1528.50" waitingTime="0.00" waitingCount="0" stopTime="0.00" timeLoss="2.39" rerouteNo="0" devices="tripinfo_E_W_59" vType="standard_car" speedFactor="0.97" vaporized=""/>
    <tripinfo id="W_E_56" depart="413.00" departLane="W2TL_2" departPos="5.10" departSpeed="10.00" departDelay="0.00" arrival="539.00" arrivalLane="TL2E_0" arrivalPos="750.00" arrivalSpeed="12.11" duration="126.00" routeLength="1528.50" waitingTime="0.00" waitingCount="0" stopTime="0.00" timeLoss="2.75" rerouteNo="0" devices="tripinfo_W_E_56" vType="standard_car" speedFactor="0.90" vaporized=""/>
    <tripinfo id="E_W_62" depart="433.00" departLane="E2TL_1" departPos="5.10" departSpeed="10.00" departDelay="0.00" arrival="545.00" arrivalLane="TL2W_0" arrivalPos="750.00" arrivalSpeed="14.03" duration="112.00" routeLength="1528.50" waitingTime="0.00" waitingCount="0" stopTime="0.00" timeLoss="2.70" rerouteNo="0" devices="tripinfo_E_W_62" vType="standard_car" speedFactor="1.02" vaporized=""/>
    <tripinfo id="W_N_82" depart="499.00" departLane="W2TL_3" departPos="5.10" departSpeed="10.00" departDelay="0.00" arrival="668.00" arrivalLane="TL2N_1" arrivalPos="750.00" arrivalSpeed="13.76" duration="169.00" routeLength="1524.57" waitingTime="46.00" waitingCount="1" stopTime="0.00" timeLoss="60.29" rerouteNo="0" devices="tripinfo_W_N_82" vType="standard_car" speedFactor="1.02" vaporized=""/>
    <tripinfo id="W_N_94" depart="523.00" departLane="W2TL_3" departPos="5.10" departSpeed="10.00" departDelay="0.00" arrival="668.00" arrivalLane="TL2N_2" arrivalPos="750.00" arrivalSpeed="14.96" duration="145.00" routeLength="1524.57" waitingTime="27.00" waitingCount="1" stopTime="0.00" timeLoss="43.21" rerouteNo="0" devices="tripinfo_W_N_94" vType="standard_car" speedFactor="1.09" vaporized=""/>
    <tripinfo id="W_N_71" depart="461.00" departLane="W2TL_2" departPos="5.10" departSpeed="10.00" departDelay="0.00" arrival="669.00" arrivalLane="TL2N_0" arrivalPos="750.00" arrivalSpeed="13.40" duration="208.00" routeLength="1524.57" waitingTime="82.00" waitingCount="1" stopTime="0.00" timeLoss="93.83" rerouteNo="0" devices="tripinfo_W_N_71" vType="standard_car" speedFactor="0.97" vaporized=""/>
    <tripinfo id="W_N_65" depart="444.00" departLane="W2TL_0" departPos="5.10" departSpeed="10.00" departDelay="0.00" arrival="672.00" arrivalLane="TL2N_0" arrivalPos="750.00" arrivalSpeed="12.16" duration="228.00" routeLength="1524.57" waitingTime="91.00" waitingCount="1" stopTime="0.00" timeLoss="102.61" rerouteNo="0" devices="tripinfo_W_N_65" vType="standard_car" speedFactor="0.88" vaporized=""/>
    <tripinfo id="W_N_115" depart="577.00" departLane="W2TL_0" departPos="5.10" departSpeed="10.00" departDelay="0.00" arrival="700.00" arrivalLane="TL2N_0" arrivalPos="750.00" arrivalSpeed="12.76" duration="123.00" routeLength="1524.57" waitingTime="0.00" waitingCount="0" stopTime="0.00" timeLoss="2.93" rerouteNo="0" devices="tripinfo_W_N_115" vType="standard_car" speedFactor="0.92" vaporized=""/>
    <tripinfo id="E_S_123" depart="594.00" departLane="E2TL_2" departPos="5.10" departSpeed="10.00" departDelay="0.00" arrival="705.00" arrivalLane="TL2S_0" arrivalPos="750.00" arrivalSpeed="13.75" duration="111.00" routeLength="1524.57" waitingTime="0.00" waitingCount="0" stopTime="0.00" timeLoss="2.75" rerouteNo="0" devices="tripinfo_E_S_123" vType="standard_car" speedFactor="1.02" vaporized=""/>
    <tripinfo id="W_N_142" depart="640.00" departLane="W2TL_3" departPos="5.10" departSpeed="10.00" departDelay="0.00" arrival="761.00" arrivalLane="TL2N_0" arrivalPos="750.00" arrivalSpeed="12.83" duration="121.00" routeLength="1524.57" waitingTime="0.00" waitingCount="0" stopTime="0.00" timeLoss="3.00" rerouteNo="0" devices="tripinfo_W_N_142" vType="standard_car" speedFactor="0.94" vaporized=""/>
    <tripinfo id="S_N_37" depart="344.00" departLane="S2TL_2" departPos="5.10" departSpeed="10.00" departDelay="0.00" arrival="859.00" arrivalLane="TL2N_0" arrivalPos="750.00" arrivalSpeed="16.16" duration="515.00" routeLength="1528.50" waitingTime="405.00" waitingCount="1" stopTime="0.00" timeLoss="421.19" rerouteNo="0" devices="tripinfo_S_N_37" vType="standard_car" speedFactor="1.18" vaporized=""/>
    <tripinfo id="N_W_6" depart="145.00" departLane="N2TL_2" departPos="5.10" departSpeed="10.00" departDelay="0.00" arrival="862.00" arrivalLane="TL2W_0" arrivalPos="750.00" arrivalSpeed="14.04" duration="717.00" routeLength="1503.93" waitingTime="600.00" waitingCount="1" stopTime="0.00" timeLoss="612.28" rerouteNo="0" devices="tripinfo_N_W_6" vType="standard_car" speedFactor="1.05" vaporized=""/>
    <tripinfo id="N_S_10" depart="188.00" departLane="N2TL_1" departPos="5.10" departSpeed="10.00" departDelay="0.00" arrival="862.00" arrivalLane="TL2S_0" arrivalPos="750.00" arrivalSpeed="14.71" duration="674.00" routeLength="1528.50" waitingTime="558.00" waitingCount="1" stopTime="0.00" timeLoss="572.49" rerouteNo="0" devices="tripinfo_N_S_10" vType="standard_car" speedFactor="1.09" vaporized=""/>
    <tripinfo id="S_N_0" depart="66.00" departLane="S2TL_2" departPos="5.10" departSpeed="10.00" departDelay="0.00" arrival="863.00" arrivalLane="TL2N_0" arrivalPos="750.00" arrivalSpeed="14.32" duration="797.00" routeLength="1528.50" waitingTime="679.00" waitingCount="1" stopTime="0.00" timeLoss="692.58" rerouteNo="0" devices="tripinfo_S_N_0" vType="standard_car" speedFactor="1.06" vaporized=""/>
    <tripinfo id="N_S_12" depart="191.00" departLane="N2TL_1" departPos="5.10" departSpeed="10.00" departDelay="2.00" arrival="863.00" arrivalLane="TL2S_1" arrivalPos="750.00" arrivalSpeed="14.10" duration="672.00" routeLength="1528.50" waitingTime="553.00" waitingCount="1" stopTime="0.00" timeLoss="566.87" rerouteNo="0" devices="tripinfo_N_S_12" vType="standard_car" speedFactor="1.05" vaporized=""/>
    <tripinfo id="N_S_13" depart="202.00" departLane="N2TL_3" departPos="5.10" departSpeed="10.00" departDelay="0.00" arrival="863.00" arrivalLane="TL2S_0" arrivalPos="750.00" arrivalSpeed="15.52" duration="661.00" routeLength="1528.50" waitingTime="546.00" waitingCount="1" stopTime="0.00" timeLoss="562.97" rerouteNo="0" devices="tripinfo_N_S_13" vType="standard_car" speedFactor="1.12" vaporized=""/>
    <tripinfo id="S_N_38" depart="352.00" departLane="S2TL_3" departPos="5.10" departSpeed="10.00" departDelay="0.00" arrival="864.00" arrivalLane="TL2N_0" arrivalPos="750.00" arrivalSpeed="15.11" duration="512.00" routeLength="1528.50" waitingTime="395.00" waitingCount="1" stopTime="0.00" timeLoss="412.10" rerouteNo="0" devices="tripinfo_S_N_38" vType="standard_car" speedFactor="1.10" vaporized=""/>
    <tripinfo id="S_N_57" depart="417.00" departLane="S2TL_3" departPos="5.10" departSpeed="10.00" departDelay="0.00" arrival="864.00" arrivalLane="TL2N_1" arrivalPos="750.00" arrivalSpeed="15.53" duration="447.00" routeLength="1528.50" waitingTime="333.00" waitingCount="1" stopTime="0.00" timeLoss="349.75" rerouteNo="0" devices="tripinfo_S_N_57" vType="standard_car" speedFactor="1.14" vaporized=""/>
    <tripinfo id="N_S_20" depart="250.00" departLane="N2TL_3" departPos="5.10" departSpeed="10.00" departDelay="0.00" arrival="867.00" arrivalLane="TL2S_0" arrivalPos="750.00" arrivalSpeed="13.74" duration="617.00" routeLength="1528.50" waitingTime="494.00" waitingCount="1" stopTime="0.00" timeLoss="508.05" rerouteNo="0" devices="tripinfo_N_S_20" vType="standard_car" speedFactor="1.02" vaporized=""/>
    <tripinfo id="S_N_46" depart="381.00" departLane="S2TL_3" departPos="5.10" departSpeed="10.00" departDelay="0.00" arrival="868.00" arrivalLane="TL2N_0" arrivalPos="750.00" arrivalSpeed="13.69" duration="487.00" routeLength="1528.50" waitingTime="361.00" waitingCount="1" stopTime="0.00" timeLoss="376.10" rerouteNo="0" devices="tripinfo_S_N_46" vType="standard_car" speedFactor="1.00" vaporized=""/>
    <tripinfo id="N_S_35" depart="342.00" departLane="N2TL_3" departPos="5.10" departSpeed="10.00" departDelay="0.00" arrival="870.00" arrivalLane="TL2S_0" arrivalPos="750.00" arrivalSpeed="13.80" duration="528.00" routeLength="1528.50" waitingTime="405.00" waitingCount="1" stopTime="0.00" timeLoss="419.56" rerouteNo="0" devices="tripinfo_N_S_35" vType="standard_car" speedFactor="1.02" vaporized=""/>
    <tripinfo id="N_S_8" depart="185.00" departLane="N2TL_3" departPos="5.10" departSpeed="10.00" departDelay="0.00" arrival="871.00" arrivalLane="TL2S_0" arrivalPos="750.00" arrivalSpeed="12.98" duration="686.00" routeLength="1528.50" waitingTime="556.00" waitingCount="1" stopTime="0.00" timeLoss="568.65" rerouteNo="0" devices="tripinfo_N_S_8" vType="standard_car" speedFactor="0.94" vaporized=""/>
    <tripinfo id="N_S_43" depart="367.00" departLane="N2TL_0" departPos="5.10" departSpeed="10.00" departDelay="0.00" arrival="871.00" arrivalLane="TL2S_2" arrivalPos="750.00" arrivalSpeed="14.03" duration="504.00" routeLength="1528.50" waitingTime="383.00" waitingCount="1" stopTime="0.00" timeLoss="397.74" rerouteNo="0" devices="tripinfo_N_S_43" vType="standard_car" speedFactor="1.04" vaporized=""/>
    <tripinfo id="N_S_14" depart="212.00" departLane="N2TL_2" departPos="5.10" departSpeed="10.00" departDelay="0.00" arrival="872.00" arrivalLane="TL2S_1" arrivalPos="750.00" arrivalSpeed="13.70" duration="660.00" routeLength="1528.50" waitingTime="532.00" waitingCount="1" stopTime="0.00" timeLoss="548.48" rerouteNo="0" devices="tripinfo_N_S_14" vType="standard_car" speedFactor="0.99" vaporized=""/>
    <tripinfo id="S_N_7" depart="146.00" departLane="S2TL_1" departPos="5.10" departSpeed="10.00" departDelay="0.00" arrival="873.00" arrivalLane="TL2N_0" arrivalPos="750.00" arrivalSpeed="12.28" duration="727.00" routeLength="1528.50" waitingTime="589.00" waitingCount="1" stopTime="0.00" timeLoss="602.03" rerouteNo="0" devices="tripinfo_S_N_7" vType="standard_car" speedFactor="0.89" vaporized=""/>
    <tripinfo id="N_S_112" depart="568.00" departLane="N2TL_0" departPos="5.10" departSpeed="10.00" departDelay="0.00" arrival="873.00" arrivalLane="TL2S_3" arrivalPos="750.00" arrivalSpeed="15.05" duration="305.00" routeLength="1528.50" waitingTime="186.00" waitingCount="1" stopTime="0.00" timeLoss="204.03" rerouteNo="0" devices="tripinfo_N_S_112" vType="standard_car" speedFactor="1.10" vaporized=""/>
    <tripinfo id="N_S_26" depart="292.00" departLane="N2TL_1" departPos="5.10" departSpeed="10.00" departDelay="0.00" arrival="874.00" arrivalLane="TL2S_1" arrivalPos="750.00" arrivalSpeed="12.64" duration="582.00" routeLength="1528.50" waitingTime="449.00" waitingCount="1" stopTime="0.00" timeLoss="461.28" rerouteNo="0" devices="tripinfo_N_S_26" vType="standard_car" speedFactor="0.92" vaporized=""/>
    <tripinfo id="S_N_75" depart="471.00" departLane="S2TL_3" departPos="5.10" departSpeed="10.00" departDelay="0.00" arrival="874.00" arrivalLane="TL2N_2" arrivalPos="750.00" arrivalSpeed="13.57" duration="403.00" routeLength="1528.50" waitingTime="274.00" waitingCount="1" stopTime="0.00" timeLoss="291.18" rerouteNo="0" devices="tripinfo_S_N_75" vType="standard_car" speedFactor="0.98" vaporized=""/>
    <tripinfo id="S_N_64" depart="437.00" departLane="S2TL_1" departPos="5.10" departSpeed="10.00" departDelay="0.00" arrival="875.00" arrivalLane="TL2N_1" arrivalPos="750.00" arrivalSpeed="12.70" duration="438.00" routeLength="1528.50" waitingTime="304.00" waitingCount="1" stopTime="0.00" timeLoss="320.38" rerouteNo="0" devices="tripinfo_S_N_64" vType="standard_car" speedFactor="0.94" vaporized=""/>
    <tripinfo id="N_S_95" depart="523.00" departLane="N2TL_3" departPos="5.10" departSpeed="10.00" departDelay="0.00" arrival="875.00" arrivalLane="TL2S_2" arrivalPos="750.00" arrivalSpeed="14.37" duration="352.00" routeLength="1528.50" waitingTime="229.00" waitingCount="1" stopTime="0.00" timeLoss="247.14" rerouteNo="0" devices="tripinfo_N_S_95" vType="standard_car" speedFactor="1.06" vaporized=""/>
    <tripinfo id="S_N_9" depart="186.00" departLane="S2TL_3" departPos="5.10" departSpeed="10.00" departDelay="0.00" arrival="876.00" arrivalLane="TL2N_0" arrivalPos="750.00" arrivalSpeed="11.61" duration="690.00" routeLength="1528.50" waitingTime="549.00" waitingCount="1" stopTime="0.00" timeLoss="561.05" rerouteNo="0" devices="tripinfo_S_N_9" vType="standard_car" speedFactor="0.86" vaporized=""/>
    <tripinfo id="N_S_23" depart="277.00" departLane="N2TL_0" departPos="5.10" departSpeed="10.00" departDelay="0.00" arrival="876.00" arrivalLane="TL2S_0" arrivalPos="750.00" arrivalSpeed="11.90" duration="599.00" routeLength="1528.50" waitingTime="461.00" waitingCount="1" stopTime="0.00" timeLoss="474.78" rerouteNo="0" devices="tripinfo_N_S_23" vType="standard_car" speedFactor="0.89" vaporized=""/>
    <tripinfo id="S_N_69" depart="456.00" departLane="S2TL_0" departPos="5.10" departSpeed="10.00" departDelay="0.00" arrival="876.00" arrivalLane="TL2N_2" arrivalPos="750.00" arrivalSpeed="13.84" duration="420.00" routeLength="1528.50" waitingTime="292.00" waitingCount="1" stopTime="0.00" timeLoss="312.30" rerouteNo="0" devices="tripinfo_S_N_69" vType="standard_car" speedFactor="1.02" vaporized=""/>
    <tripinfo id="S_N_116" depart="584.00" departLane="S2TL_3" departPos="5.10" departSpeed="10.00" departDelay="0.00" arrival="876.00" arrivalLane="TL2N_3" arrivalPos="750.00" arrivalSpeed="15.86" duration="292.00" routeLength="1528.50" waitingTime="175.00" waitingCount="1" stopTime="0.00" timeLoss="197.73" rerouteNo="0" devices="tripinfo_S_N_116" vType="standard_car" speedFactor="1.18" vaporized=""/>
    <tripinfo id="S_N_48" depart="387.00" departLane="S2TL_3" departPos="5.10" departSpeed="10.00" departDelay="0.00" arrival="877.00" arrivalLane="TL2N_1" arrivalPos="750.00" arrivalSpeed="11.84" duration="490.00" routeLength="1528.50" waitingTime="350.00" waitingCount="1" stopTime="0.00" timeLoss="364.01" rerouteNo="0" devices="tripinfo_S_N_48" vType="standard_car" speedFactor="0.88" vaporized=""/>
    <tripinfo id="S_N_105" depart="559.00" departLane="S2TL_1" departPos="5.10" departSpeed="10.00" departDelay="0.00" arrival="877.00" arrivalLane="TL2N_3" arrivalPos="750.00" arrivalSpeed="14.77" duration="318.00" routeLength="1528.50" waitingTime="196.00" waitingCount="1" stopTime="0.00" timeLoss="215.24" rerouteNo="0" devices="tripinfo_S_N_105" vType="standard_car" speedFactor="1.07" vaporized=""/>
    <tripinfo id="N_W_143" depart="643.00" departLane="N2TL_2" departPos="5.10" departSpeed="10.00" departDelay="0.00" arrival="877.00" arrivalLane="TL2W_0" arrivalPos="750.00" arrivalSpeed="15.28" duration="234.00" routeLength="1503.93" waitingTime="118.00" waitingCount="1" stopTime="0.00" timeLoss="137.57" rerouteNo="0" devices="tripinfo_N_W_143" vType="standard_car" speedFactor="1.13" vaporized=""/>
    <tripinfo id="S_N_44" depart="370.00" departLane="S2TL_2" departPos="5.10" departSpeed="10.00" departDelay="0.00" arrival="878.00" arrivalLane="TL2N_0" arrivalPos="750.00" arrivalSpeed="13.32" duration="508.00" routeLength="1528.50" waitingTime="377.00" waitingCount="1" stopTime="0.00" timeLoss="401.66" rerouteNo="0" devices="tripinfo_S_N_44" vType="standard_car" speedFactor="1.04" vaporized=""/>
    <tripinfo id="S_N_61" depart="424.00" departLane="S2TL_0" departPos="5.10" departSpeed="10.00" departDelay="0.00" arrival="878.00" arrivalLane="TL2N_2" arrivalPos="750.00" arrivalSpeed="13.46" duration="454.00" routeLength="1528.50" waitingTime="328.00" waitingCount="1" stopTime="0.00" timeLoss="355.63" rerouteNo="0" devices="tripinfo_S_N_61" vType="standard_car" speedFactor="1.12" vaporized=""/>
    <tripinfo id="N_S_131" depart="612.00" departLane="N2TL_0" departPos="5.10" departSpeed="10.00" departDelay="0.00" arrival="878.00" arrivalLane="TL2S_3" arrivalPos="750.00" arrivalSpeed="14.74" duration="266.00" routeLength="1528.50" waitingTime="145.00" waitingCount="1" stopTime="0.00" timeLoss="162.41" rerouteNo="0" devices="tripinfo_N_S_131" vType="standard_car" speedFactor="1.07" vaporized=""/>
    <tripinfo id="N_W_156" depart="673.00" departLane="N2TL_3" departPos="5.10" departSpeed="10.00" departDelay="0.00" arrival="878.00" arrivalLane="TL2W_1" arrivalPos="750.00" arrivalSpeed="16.23" duration="205.00" routeLength="1503.93" waitingTime="92.00" waitingCount="1" stopTime="0.00" timeLoss="111.84" rerouteNo="0" devices="tripinfo_N_W_156" vType="standard_car" speedFactor="1.18" vaporized=""/>